 Gaussian 09, Revision B.01,
 Gaussian 09:  EM64L-G09RevB.01 12-Aug-2010

 ----------------------------------------------------------------------
 #G3MP2 QCISD=(Maxcyc=400) opt=(MaxCycles=400) scf=(MaxCycle=600) test
 GFInput IOP(6/7=3)
 ----------------------------------------------------------------------

 -------------------------------
 2NBALa-2_opt, G3MP2, qcisd test
 -------------------------------
 Symbolic Z-matrix:
 Charge =  0 Multiplicity = 1

 SCF Done:  E(RHF) =  -546.880223873     A.U. after   17 cycles
 SCF Done:  E(RHF) =  -546.885092445     A.U. after   15 cycles
 SCF Done:  E(RHF) =  -546.862892791     A.U. after   17 cycles
 SCF Done:  E(RHF) =  -546.885310178     A.U. after   16 cycles
 SCF Done:  E(RHF) =  -546.884189014     A.U. after   15 cycles
 SCF Done:  E(RHF) =  -546.885570248     A.U. after   15 cycles
 SCF Done:  E(RHF) =  -546.885642058     A.U. after   13 cycles
 SCF Done:  E(RHF) =  -546.885668511     A.U. after   12 cycles
 SCF Done:  E(RHF) =  -546.885670522     A.U. after   12 cycles
 SCF Done:  E(RHF) =  -546.885670805     A.U. after   10 cycles
 Optimization completed.
    -- Stationary point found.
 Normal termination of Gaussian 09 at Tue Mar 10 20:44:13 2020.

 ------------------------------------------------------------
 #N Geom=AllCheck Guess=TCheck SCRF=Check Test HF/GTBas1 Freq
 ------------------------------------------------------------

 2NBALa-2_opt, G3MP2, qcisd test
 -------------------------------
 Redundant internal coordinates taken from checkpoint file:
 2NBALa-2_opt.chk
 Charge =  0 Multiplicity = 1

 SCF Done:  E(RHF) =  -546.885670805     A.U. after    1 cycles

  Exact polarizability: 101.701   3.162  90.304  -1.408   8.572  41.948
 Approx polarizability:  95.014   2.151  88.756  -1.371  10.381  48.541

                     1                      2                      3
                     A                      A                      A
 Frequencies --    54.8356               112.8761               163.6024
 Red. masses --     7.1180                 7.3918                 4.2921
 Frc consts  --     0.0126                 0.0555                 0.0677
 IR Inten    --     2.2059                 1.8361                 6.9837
 Raman Activ --     2.5768                 4.4558                 4.8190

                     4                      5                      6
                     A                      A                      A
 Frequencies --   199.1592               223.9657               308.8654
 Red. masses --    11.8583                 3.9995                 4.3865
 Frc consts  --     0.2771                 0.1182                 0.2465
 IR Inten    --     1.0246                 5.0533                14.6346
 Raman Activ --     1.7182                 2.9785                 0.8016

                     7                      8                      9
                     A                      A                      A
 Frequencies --   373.0035               437.8202               481.5347
 Red. masses --    10.0506                 4.6651                 3.9573
 Frc consts  --     0.8239                 0.5269                 0.5406
 IR Inten    --     3.5516                 2.1790                 2.0020
 Raman Activ --     2.7164                 0.7996                 2.1804

                    10                     11                     12
                     A                      A                      A
 Frequencies --   540.7004               632.5262               704.1666
 Red. masses --     5.5973                 4.2923                 5.9426
 Frc consts  --     0.9641                 1.0118                 1.7361
 IR Inten    --     6.5573                 4.1775                12.0780
 Raman Activ --     6.0844                 1.7019                 3.0464

                    13                     14                     15
                     A                      A                      A
 Frequencies --   737.4315               797.7635               840.8535
 Red. masses --     6.3515                 5.2307                 1.7779
 Frc consts  --     2.0350                 1.9614                 0.7406
 IR Inten    --    20.3400                 9.9191                63.6265
 Raman Activ --     3.0155                 1.3336                 2.8519

                    16                     17                     18
                     A                      A                      A
 Frequencies --   895.9347               915.1562               970.6934
 Red. masses --     2.4335                 5.3316                 8.0719
 Frc consts  --     1.1509                 2.6309                 4.4811
 IR Inten    --    17.5948                52.6557                32.7086
 Raman Activ --     2.5548                 6.3314                 4.0723

                    19                     20                     21
                     A                      A                      A
 Frequencies --  1004.6893              1091.7837              1126.8904
 Red. masses --     1.4206                 1.4073                 1.8322
 Frc consts  --     0.8449                 0.9883                 1.3708
 IR Inten    --     1.5525                 2.3084                 1.6636
 Raman Activ --     1.5223                 0.8371                 8.7270

                    22                     23                     24
                     A                      A                      A
 Frequencies --  1136.5562              1139.2376              1210.6194
 Red. masses --     1.3848                 2.4475                 2.5550
 Frc consts  --     1.0540                 1.8716                 2.2063
 IR Inten    --     0.0343                 1.8918                 2.9294
 Raman Activ --     1.1887                17.0257                 0.1211

                    25                     26                     27
                     A                      A                      A
 Frequencies --  1232.4054              1273.7176              1321.0785
 Red. masses --     2.2293                 2.4202                 2.6653
 Frc consts  --     1.9950                 2.3134                 2.7406
 IR Inten    --     9.9770                 1.7639                34.6526
 Raman Activ --    12.8210                 2.6552                19.7980

                    28                     29                     30
                     A                      A                      A
 Frequencies --  1349.8279              1416.3523              1552.1587
 Red. masses --     1.7216                 1.5182                 1.2296
 Frc consts  --     1.8482                 1.7944                 1.7454
 IR Inten    --    36.7007                 1.4073                20.5646
 Raman Activ --     0.5301                 1.0850                 4.5655

                    31                     32                     33
                     A                      A                      A
 Frequencies --  1614.6276              1650.3517              1682.0092
 Red. masses --     2.0701                 3.7190                 4.7789
 Frc consts  --     3.1797                 5.9680                 7.9659
 IR Inten    --    16.3003               110.5976                69.5751
 Raman Activ --     0.8425                10.6027                19.1359

                    34                     35                     36
                     A                      A                      A
 Frequencies --  1784.3886              1804.0876              1865.3717
 Red. masses --     5.8569                 6.0922                13.1281
 Frc consts  --    10.9874                11.6827                26.9144
 IR Inten    --    25.4452                85.6667               481.5840
 Raman Activ --    12.6890                42.3511                 4.6137

                    37                     38                     39
                     A                      A                      A
 Frequencies --  2026.9069              3189.7502              3368.2594
 Red. masses --    10.6433                 1.0882                 1.0899
 Frc consts  --    25.7628                 6.5234                 7.2853
 IR Inten    --   262.9008                89.3781                 3.6015
 Raman Activ --    48.4849               111.1384                57.3725

                    40                     41                     42
                     A                      A                      A
 Frequencies --  3384.9464              3400.3651              3421.2813
 Red. masses --     1.0916                 1.0969                 1.0956
 Frc consts  --     7.3690                 7.4724                 7.5561
 IR Inten    --     7.3837                13.5742                 1.0013
 Raman Activ --    77.5404               152.0087               105.1634

 - Thermochemistry -
 -------------------
 Temperature   298.150 Kelvin.  Pressure   1.00000 Atm.
 Atom     1 has atomic number  6 and mass  12.00000

 Molecular mass:   151.02694 amu.
 Principal axes and moments of inertia in atomic units:
                           1         2         3
     Eigenvalues --  1050.756131582.400712430.71392
           X            0.99993   0.01219   0.00016
           Y           -0.01219   0.99989   0.00874
           Z           -0.00006  -0.00875   0.99996
 This molecule is an asymmetric top.
 Rotational symmetry number  1.
 Warning -- assumption of classical behavior for rotation
           may cause significant error
 Rotational temperatures (Kelvin)      0.08243     0.05474     0.03563
 Rotational constants (GHZ):           1.71756     1.14051     0.74247
 Zero-point vibrational energy     319633.5 (Joules/Mol)
                                   76.39424 (Kcal/Mol)
 Warning -- explicit consideration of  10 degrees of freedom as
           vibrations may cause significant error
 Vibrational temperatures:     78.90   162.40   235.39   286.55   322.24
          (Kelvin)            444.39   536.67   629.92   692.82   777.95
                              910.06  1013.14  1061.00  1147.80  1209.80
                             1289.05  1316.70  1396.61  1445.52  1570.83
                             1621.34  1635.25  1639.11  1741.81  1773.15
                             1832.59  1900.73  1942.10  2037.81  2233.21
                             2323.09  2374.49  2420.03  2567.33  2595.68
                             2683.85  2916.26  4589.33  4846.17  4870.18
                             4892.36  4922.45

 Zero-point correction=                           0.121742 (Hartree/Particle)
 Thermal correction to Energy=                    0.130129
 Thermal correction to Enthalpy=                  0.131073
 Thermal correction to Gibbs Free Energy=         0.087384
 Sum of electronic and zero-point Energies=           -546.763929
 Sum of electronic and thermal Energies=              -546.755542
 Sum of electronic and thermal Enthalpies=            -546.754598
 Sum of electronic and thermal Free Energies=         -546.798287

                     E (Thermal)             CV                S
                      KCal/Mol        Cal/Mol-Kelvin    Cal/Mol-Kelvin
 Total                   81.657             30.213             91.951
 Electronic               0.000              0.000              0.000
 Translational            0.889              2.981             40.947
 Rotational               0.889              2.981             29.781
 Vibrational             79.880             24.251             21.223
 Vibration     1          0.596              1.976              4.635
 Vibration     2          0.607              1.939              3.219
 Vibration     3          0.623              1.887              2.508
 Vibration     4          0.637              1.841              2.141
 Vibration     5          0.649              1.805              1.927
 Vibration     6          0.698              1.657              1.368
 Vibration     7          0.744              1.528              1.067
 Vibration     8          0.798              1.388              0.833
 Vibration     9          0.838              1.291              0.706
 Vibration    10          0.896              1.160              0.564

 Optimization completed.
    -- Stationary point found.
 Normal termination of Gaussian 09 at Tue Mar 10 20:44:37 2020.

 ----------------------------------------------------------------------
 #N Geom=AllCheck Guess=TCheck SCRF=Check Test MP2(Full)/GTBas1 Opt=RCF
 C
 ----------------------------------------------------------------------

 2NBALa-2_opt, G3MP2, qcisd test
 -------------------------------
 Redundant internal coordinates taken from checkpoint file:
 2NBALa-2_opt.chk
 Charge =  0 Multiplicity = 1

 SCF Done:  E(RHF) =  -546.885670805     A.U. after    1 cycles
 E2 =    -0.1633331959D+01 EUMP2 =    -0.54851900276453D+03
 SCF Done:  E(RHF) =  -546.876838776     A.U. after   15 cycles
 E2 =    -0.1653062365D+01 EUMP2 =    -0.54852990114139D+03
 SCF Done:  E(RHF) =  -546.872797331     A.U. after   16 cycles
 E2 =    -0.1657432707D+01 EUMP2 =    -0.54853023003844D+03
 SCF Done:  E(RHF) =  -546.872857491     A.U. after   15 cycles
 E2 =    -0.1657440313D+01 EUMP2 =    -0.54853029780375D+03
 SCF Done:  E(RHF) =  -546.872993314     A.U. after   11 cycles
 E2 =    -0.1657305924D+01 EUMP2 =    -0.54853029923796D+03
 SCF Done:  E(RHF) =  -546.872999966     A.U. after   10 cycles
 E2 =    -0.1657299344D+01 EUMP2 =    -0.54853029931084D+03
 Optimization completed.
    -- Stationary point found.
 Normal termination of Gaussian 09 at Tue Mar 10 20:47:28 2020.

 -------------------------------------------------------------------
 #N Geom=AllCheck Guess=TCheck SCRF=Check Test QCISD(T,FrzG3)/GTBas1
 -------------------------------------------------------------------

 2NBALa-2_opt, G3MP2, qcisd test
 -------------------------------
 Redundant internal coordinates taken from checkpoint file:
 2NBALa-2_opt.chk
 Charge =  0 Multiplicity = 1

 SCF Done:  E(RHF) =  -546.872999966     A.U. after    1 cycles
 E2 =    -0.1610721647D+01 EUMP2 =    -0.54848372161325D+03
 Normal termination of Gaussian 09 at Tue Mar 10 21:17:11 2020.

 ------------------------------------------------------------------
 #N Geom=AllCheck Guess=TCheck SCRF=Check Test MP2=FrzG3/GTMP2Large
 ------------------------------------------------------------------

 2NBALa-2_opt, G3MP2, qcisd test
 -------------------------------
 Redundant internal coordinates taken from checkpoint file:
 2NBALa-2_opt.chk
 Charge =  0 Multiplicity = 1

                         Standard orientation:
 ---------------------------------------------------------------------
 Center     Atomic      Atomic             Coordinates (Angstroms)
 Number     Number       Type             X           Y           Z
 ---------------------------------------------------------------------
      1          6           0       -1.000992   -1.457938   -0.037431
      2          6           0       -2.344585   -1.082580   -0.029706
      3          6           0       -2.697497    0.265682    0.032624
      4          6           0       -1.702422    1.241001    0.066023
      5          6           0       -0.348555    0.890863    0.058309
      6          6           0       -0.027238   -0.469862    0.014225
      7          1           0       -0.701696   -2.500818   -0.078326
      8          1           0       -3.114907   -1.848066   -0.061660
      9          1           0       -3.744294    0.555814    0.041269
     10          1           0       -1.972439    2.295248    0.089548
     11          6           0        0.661793    1.973498   -0.051860
     12          7           0        1.361855   -0.915852    0.113477
     13          8           0        1.747049   -1.736326   -0.735587
     14          8           0        2.022745   -0.487599    1.070887
     15          8           0        1.787026    1.820532   -0.506253
     16          1           0        0.302767    2.971939    0.269340
 ---------------------------------------------------------------------

 SCF Done:  E(RHF) =  -547.052486026     A.U. after   15 cycles
 E2 =    -0.2000995249D+01 EUMP2 =    -0.54905348127436D+03

 The electronic state is 1-A.
 Alpha  occ. eigenvalues --  -20.61059 -20.61045 -20.57729 -15.85734 -11.35978
 Alpha  occ. eigenvalues --  -11.33482 -11.29608 -11.29068 -11.28972 -11.28719
 Alpha  occ. eigenvalues --  -11.28416  -1.59408  -1.40454  -1.39265  -1.21892
 Alpha  occ. eigenvalues --   -1.10940  -1.08605  -0.98317  -0.91250  -0.86857
 Alpha  occ. eigenvalues --   -0.82136  -0.77533  -0.73339  -0.72691  -0.71324
 Alpha  occ. eigenvalues --   -0.68122  -0.67042  -0.65072  -0.63793  -0.57992
 Alpha  occ. eigenvalues --   -0.57950  -0.55912  -0.52870  -0.50327  -0.49638
 Alpha  occ. eigenvalues --   -0.45717  -0.44612  -0.38871  -0.38546
 Alpha virt. eigenvalues --    0.02420   0.02464   0.03642   0.04798   0.05973
 Alpha virt. eigenvalues --    0.06506   0.07892   0.08737   0.09816   0.10709
 Alpha virt. eigenvalues --    0.11717   0.12706   0.13740   0.14115   0.15099

 Mulliken atomic charges:
              1
     1  C   -0.202859
     2  C    0.048790
     3  C   -0.512939
     4  C   -0.099278
     5  C    1.185957
     6  C   -1.071923
     7  H    0.203696
     8  H    0.190870
     9  H    0.168515
    10  H    0.152742
    11  C    0.340920
    12  N    0.121983
    13  O   -0.118775
    14  O   -0.164752
    15  O   -0.364106
    16  H    0.121160
 Sum of Mulliken atomic charges =   0.00000

 Dipole moment (field-independent basis, Debye):
    X=             -7.6867    Y=              1.0102    Z=              0.7201  Tot=              7.7861
 Quadrupole moment (field-independent basis, Debye-Ang):
   XX=            -66.4051   YY=            -56.1628   ZZ=            -67.8827
   XY=              0.2780   XZ=              0.9783   YZ=              0.6582

 Normal termination of Gaussian 09 at Tue Mar 10 21:23:36 2020.
