 Gaussian 09, Revision B.01,
 Gaussian 09:  EM64L-G09RevB.01 12-Aug-2010

 ----------------------------------------------------------------------
 #G3MP2 QCISD=(Maxcyc=400) opt=(MaxCycles=400) scf=(MaxCycle=600) test
 GFInput IOP(6/7=3)
 ----------------------------------------------------------------------

 -------------------------------
 2NBALb-2_opt, G3MP2, qcisd test
 -------------------------------
 Symbolic Z-matrix:
 Charge =  0 Multiplicity = 1

 SCF Done:  E(RHF) =  -546.887349803     A.U. after   16 cycles
 SCF Done:  E(RHF) =  -546.892454398     A.U. after   14 cycles
 SCF Done:  E(RHF) =  -546.881472792     A.U. after   18 cycles
 SCF Done:  E(RHF) =  -546.892539370     A.U. after   18 cycles
 SCF Done:  E(RHF) =  -546.890984788     A.U. after   15 cycles
 SCF Done:  E(RHF) =  -546.892537359     A.U. after   14 cycles
 SCF Done:  E(RHF) =  -546.892663524     A.U. after   14 cycles
 SCF Done:  E(RHF) =  -546.892701605     A.U. after   12 cycles
 SCF Done:  E(RHF) =  -546.892702781     A.U. after   11 cycles
 SCF Done:  E(RHF) =  -546.892703258     A.U. after   11 cycles
 SCF Done:  E(RHF) =  -546.892703463     A.U. after   11 cycles
 Optimization completed.
    -- Stationary point found.
 Normal termination of Gaussian 09 at Tue Mar 10 21:24:27 2020.

 ------------------------------------------------------------
 #N Geom=AllCheck Guess=TCheck SCRF=Check Test HF/GTBas1 Freq
 ------------------------------------------------------------

 2NBALb-2_opt, G3MP2, qcisd test
 -------------------------------
 Redundant internal coordinates taken from checkpoint file:
 2NBALb-2_opt.chk
 Charge =  0 Multiplicity = 1

 SCF Done:  E(RHF) =  -546.892703463     A.U. after    1 cycles

  Exact polarizability:  96.784  -0.561 103.985  -3.105   2.285  34.576
 Approx polarizability:  92.580  -3.960 101.367  -3.237   4.027  40.178

                     1                      2                      3
                     A                      A                      A
 Frequencies --    54.2785               106.8685               140.0150
 Red. masses --    10.4925                 5.9935                 4.5849
 Frc consts  --     0.0182                 0.0403                 0.0530
 IR Inten    --     4.9221                 6.3687                 2.6115
 Raman Activ --     0.5543                 2.0513                 4.6866

                     4                      5                      6
                     A                      A                      A
 Frequencies --   221.8680               289.9516               322.9533
 Red. masses --     6.1587                 6.0928                 3.5731
 Frc consts  --     0.1786                 0.3018                 0.2196
 IR Inten    --     4.9197                 3.9573                 9.0093
 Raman Activ --     3.1825                 1.0536                 1.8484

                     7                      8                      9
                     A                      A                      A
 Frequencies --   412.5032               441.5296               483.4272
 Red. masses --     7.6282                 9.1852                 3.6426
 Frc consts  --     0.7648                 1.0550                 0.5016
 IR Inten    --     3.8033                10.3457                 2.4931
 Raman Activ --     1.4600                 3.6211                 0.8851

                    10                     11                     12
                     A                      A                      A
 Frequencies --   528.6186               620.4800               701.9769
 Red. masses --     4.0718                 5.5571                 6.1201
 Frc consts  --     0.6704                 1.2605                 1.7769
 IR Inten    --     2.9199                 0.5438                14.8243
 Raman Activ --     1.3819                 3.5515                 4.7708

                    13                     14                     15
                     A                      A                      A
 Frequencies --   757.5869               777.5203               846.8409
 Red. masses --     4.8071                 5.3079                 1.7590
 Frc consts  --     1.6255                 1.8906                 0.7432
 IR Inten    --    15.4506                20.8991                77.5889
 Raman Activ --     0.5297                 0.3133                 2.3839

                    16                     17                     18
                     A                      A                      A
 Frequencies --   896.2582               908.7852               965.8178
 Red. masses --     4.4554                 2.7050                10.2998
 Frc consts  --     2.1087                 1.3163                 5.6607
 IR Inten    --    49.5284                 6.2812                37.4016
 Raman Activ --     8.7156                 0.6859                 6.4680

                    19                     20                     21
                     A                      A                      A
 Frequencies --  1013.8538              1107.1017              1135.3397
 Red. masses --     1.3735                 1.4037                 1.6326
 Frc consts  --     0.8318                 1.0137                 1.2399
 IR Inten    --     2.0273                 2.9210                 0.0929
 Raman Activ --     2.3054                 0.5208                 3.8841

                    22                     23                     24
                     A                      A                      A
 Frequencies --  1144.6038              1146.5428              1191.6336
 Red. masses --     2.1329                 1.5695                 3.3210
 Frc consts  --     1.6464                 1.2156                 2.7785
 IR Inten    --     0.5779                 1.2339                 0.8013
 Raman Activ --    17.2579                 4.8876                 1.4245

                    25                     26                     27
                     A                      A                      A
 Frequencies --  1235.8704              1272.8866              1311.0129
 Red. masses --     2.0668                 2.1973                 2.3493
 Frc consts  --     1.8600                 2.0976                 2.3790
 IR Inten    --     8.9175                 2.4172                60.9206
 Raman Activ --    20.1815                 9.4182                17.3814

                    28                     29                     30
                     A                      A                      A
 Frequencies --  1350.8989              1416.5591              1559.2248
 Red. masses --     1.8942                 1.5878                 1.2239
 Frc consts  --     2.0366                 1.8772                 1.7532
 IR Inten    --     3.4222                27.2549                18.6880
 Raman Activ --     2.0112                 1.7651                 6.8893

                    31                     32                     33
                     A                      A                      A
 Frequencies --  1613.4484              1642.6794              1661.2872
 Red. masses --     2.1234                 4.9796                 3.4645
 Frc consts  --     3.2569                 7.9168                 5.6335
 IR Inten    --    27.8236               174.8763                68.3152
 Raman Activ --     2.2460                36.9082                30.8431

                    34                     35                     36
                     A                      A                      A
 Frequencies --  1773.6559              1796.9277              1860.1303
 Red. masses --     5.6705                 6.2447                11.9345
 Frc consts  --    10.5102                11.8803                24.3299
 IR Inten    --     9.4628               151.7725               399.6096
 Raman Activ --    21.8018                48.4440                 6.2778

                    37                     38                     39
                     A                      A                      A
 Frequencies --  1999.5190              3306.1703              3380.8075
 Red. masses --    10.1488                 1.0916                 1.0896
 Frc consts  --    23.9065                 7.0300                 7.3378
 IR Inten    --   265.8943                40.3815                 3.9000
 Raman Activ --    50.1860                78.0767                63.8192

                    40                     41                     42
                     A                      A                      A
 Frequencies --  3398.0336              3419.4738              3434.9795
 Red. masses --     1.0953                 1.0944                 1.0949
 Frc consts  --     7.4515                 7.5398                 7.6115
 IR Inten    --    12.3123                 2.1412                 1.0533
 Raman Activ --   131.0209                79.9483                85.5514

 - Thermochemistry -
 -------------------
 Temperature   298.150 Kelvin.  Pressure   1.00000 Atm.
 Atom     1 has atomic number  6 and mass  12.00000

 Molecular mass:   151.02694 amu.
 Principal axes and moments of inertia in atomic units:
                           1         2         3
     Eigenvalues --  1263.645981455.721222664.01260
           X            0.99229   0.12393  -0.00122
           Y           -0.12394   0.99227  -0.00660
           Z            0.00039   0.00670   0.99998
 This molecule is an asymmetric top.
 Rotational symmetry number  1.
 Warning -- assumption of classical behavior for rotation
           may cause significant error
 Rotational temperatures (Kelvin)      0.06854     0.05950     0.03251
 Rotational constants (GHZ):           1.42820     1.23976     0.67745
 Zero-point vibrational energy     320897.8 (Joules/Mol)
                                   76.69641 (Kcal/Mol)
 Warning -- explicit consideration of  11 degrees of freedom as
           vibrations may cause significant error
 Vibrational temperatures:     78.09   153.76   201.45   319.22   417.18
          (Kelvin)            464.66   593.50   635.26   695.54   760.56
                              892.73  1009.99  1090.00  1118.68  1218.41
                             1289.51  1307.54  1389.59  1458.71  1592.87
                             1633.50  1646.83  1649.62  1714.49  1778.14
                             1831.40  1886.25  1943.64  2038.11  2243.37
                             2321.39  2363.45  2390.22  2551.89  2585.37
                             2676.31  2876.86  4756.84  4864.22  4889.01
                             4919.85  4942.16

 Zero-point correction=                           0.122224 (Hartree/Particle)
 Thermal correction to Energy=                    0.130488
 Thermal correction to Enthalpy=                  0.131433
 Thermal correction to Gibbs Free Energy=         0.087856
 Sum of electronic and zero-point Energies=           -546.770480
 Sum of electronic and thermal Energies=              -546.762215
 Sum of electronic and thermal Enthalpies=            -546.761271
 Sum of electronic and thermal Free Energies=         -546.804847

                     E (Thermal)             CV                S
                      KCal/Mol        Cal/Mol-Kelvin    Cal/Mol-Kelvin
 Total                   81.883             30.013             91.714
 Electronic               0.000              0.000              0.000
 Translational            0.889              2.981             40.947
 Rotational               0.889              2.981             29.973
 Vibrational             80.105             24.051             20.795
 Vibration     1          0.596              1.976              4.655
 Vibration     2          0.606              1.944              3.325
 Vibration     3          0.615              1.913              2.804
 Vibration     4          0.648              1.808              1.944
 Vibration     5          0.686              1.692              1.474
 Vibration     6          0.708              1.630              1.295
 Vibration     7          0.776              1.443              0.918
 Vibration     8          0.801              1.380              0.822
 Vibration     9          0.840              1.287              0.701
 Vibration    10          0.884              1.187              0.590
 Vibration    11          0.981              0.989              0.416

 Optimization completed.
    -- Stationary point found.
 Normal termination of Gaussian 09 at Tue Mar 10 21:24:50 2020.

 ----------------------------------------------------------------------
 #N Geom=AllCheck Guess=TCheck SCRF=Check Test MP2(Full)/GTBas1 Opt=RCF
 C
 ----------------------------------------------------------------------

 2NBALb-2_opt, G3MP2, qcisd test
 -------------------------------
 Redundant internal coordinates taken from checkpoint file:
 2NBALb-2_opt.chk
 Charge =  0 Multiplicity = 1

 SCF Done:  E(RHF) =  -546.892703463     A.U. after    1 cycles
 E2 =    -0.1631540029D+01 EUMP2 =    -0.54852424349196D+03
 SCF Done:  E(RHF) =  -546.884194118     A.U. after   14 cycles
 E2 =    -0.1650520293D+01 EUMP2 =    -0.54853471441118D+03
 SCF Done:  E(RHF) =  -546.880524042     A.U. after   16 cycles
 E2 =    -0.1654482531D+01 EUMP2 =    -0.54853500657244D+03
 SCF Done:  E(RHF) =  -546.880657509     A.U. after   15 cycles
 E2 =    -0.1654394554D+01 EUMP2 =    -0.54853505206296D+03
 SCF Done:  E(RHF) =  -546.880681963     A.U. after   11 cycles
 E2 =    -0.1654370557D+01 EUMP2 =    -0.54853505251948D+03
 Optimization completed.
    -- Stationary point found.
 Normal termination of Gaussian 09 at Tue Mar 10 21:27:12 2020.

 -------------------------------------------------------------------
 #N Geom=AllCheck Guess=TCheck SCRF=Check Test QCISD(T,FrzG3)/GTBas1
 -------------------------------------------------------------------

 2NBALb-2_opt, G3MP2, qcisd test
 -------------------------------
 Redundant internal coordinates taken from checkpoint file:
 2NBALb-2_opt.chk
 Charge =  0 Multiplicity = 1

 SCF Done:  E(RHF) =  -546.880681963     A.U. after    1 cycles
 E2 =    -0.1607827068D+01 EUMP2 =    -0.54848850903061D+03
 Normal termination of Gaussian 09 at Tue Mar 10 21:57:48 2020.

 ------------------------------------------------------------------
 #N Geom=AllCheck Guess=TCheck SCRF=Check Test MP2=FrzG3/GTMP2Large
 ------------------------------------------------------------------

 2NBALb-2_opt, G3MP2, qcisd test
 -------------------------------
 Redundant internal coordinates taken from checkpoint file:
 2NBALb-2_opt.chk
 Charge =  0 Multiplicity = 1

                         Standard orientation:
 ---------------------------------------------------------------------
 Center     Atomic      Atomic             Coordinates (Angstroms)
 Number     Number       Type             X           Y           Z
 ---------------------------------------------------------------------
      1          6           0        0.125666   -1.811966    0.054776
      2          6           0       -1.204806   -2.220266    0.088117
      3          6           0       -2.230527   -1.272328    0.058492
      4          6           0       -1.924410    0.082017   -0.022453
      5          6           0       -0.595663    0.525186   -0.049261
      6          6           0        0.407595   -0.450799   -0.005501
      7          1           0        0.943174   -2.524570    0.081806
      8          1           0       -1.438848   -3.279631    0.146436
      9          1           0       -3.268427   -1.592622    0.086005
     10          1           0       -2.705671    0.835633   -0.067150
     11          6           0       -0.364479    1.991033   -0.224145
     12          7           0        1.818890   -0.067875    0.037532
     13          8           0        2.635987   -0.831420   -0.503191
     14          8           0        2.108045    0.985340    0.633409
     15          8           0       -1.265861    2.804043   -0.049541
     16          1           0        0.631912    2.315357   -0.555380
 ---------------------------------------------------------------------

 SCF Done:  E(RHF) =  -547.059165229     A.U. after   16 cycles
 E2 =    -0.1997855062D+01 EUMP2 =    -0.54905702029063D+03

 The electronic state is 1-A.
 Alpha  occ. eigenvalues --  -20.62552 -20.62510 -20.57551 -15.87268 -11.35684
 Alpha  occ. eigenvalues --  -11.33805 -11.29771 -11.29052 -11.28589 -11.28374
 Alpha  occ. eigenvalues --  -11.28110  -1.60906  -1.40811  -1.40132  -1.21960
 Alpha  occ. eigenvalues --   -1.11376  -1.08033  -0.98782  -0.91768  -0.85391
 Alpha  occ. eigenvalues --   -0.83398  -0.78492  -0.74336  -0.73794  -0.71747
 Alpha  occ. eigenvalues --   -0.68772  -0.66241  -0.64727  -0.64317  -0.57777
 Alpha  occ. eigenvalues --   -0.57684  -0.55324  -0.52877  -0.51576  -0.51252
 Alpha  occ. eigenvalues --   -0.47330  -0.44899  -0.39254  -0.38192
 Alpha virt. eigenvalues --    0.01435   0.02781   0.04261   0.04861   0.05384
 Alpha virt. eigenvalues --    0.06545   0.07808   0.09585   0.10332   0.10453
 Alpha virt. eigenvalues --    0.12024   0.12603   0.13042   0.13976   0.14980

 Mulliken atomic charges:
              1
     1  C   -0.479366
     2  C   -0.038921
     3  C   -0.517617
     4  C    0.235951
     5  C    1.904110
     6  C   -1.711206
     7  H    0.216434
     8  H    0.189388
     9  H    0.171561
    10  H    0.202676
    11  C    0.252705
    12  N    0.014498
    13  O   -0.106254
    14  O   -0.153612
    15  O   -0.367394
    16  H    0.187049
 Sum of Mulliken atomic charges =   0.00000

 Dipole moment (field-independent basis, Debye):
    X=             -3.0810    Y=             -4.2549    Z=             -0.4502  Tot=              5.2725
 Quadrupole moment (field-independent basis, Debye-Ang):
   XX=            -68.3193   YY=            -65.1153   ZZ=            -64.9435
   XY=              7.7020   XZ=             -0.0114   YZ=             -3.4466

 Normal termination of Gaussian 09 at Tue Mar 10 22:04:12 2020.
