 Gaussian 09, Revision B.01,
 Gaussian 09:  EM64L-G09RevB.01 12-Aug-2010

 ----------------------------------------------------------------------
 #G3MP2 QCISD=(Maxcyc=400) opt=(MaxCycles=400) scf=(MaxCycle=600) test
 GFInput IOP(6/7=3)
 ----------------------------------------------------------------------

 -----------------------------
 3NBALa_opt, G3MP2, qcisd test
 -----------------------------
 Symbolic Z-matrix:
 Charge =  0 Multiplicity = 1

 SCF Done:  E(RHF) =  -546.896775840     A.U. after   15 cycles
 SCF Done:  E(RHF) =  -546.901809032     A.U. after   13 cycles
 SCF Done:  E(RHF) =  -546.901720064     A.U. after   12 cycles
 SCF Done:  E(RHF) =  -546.899064624     A.U. after   16 cycles
 SCF Done:  E(RHF) =  -546.898899393     A.U. after   11 cycles
 SCF Done:  E(RHF) =  -546.901862205     A.U. after   14 cycles
 SCF Done:  E(RHF) =  -546.901915425     A.U. after   17 cycles
 SCF Done:  E(RHF) =  -546.901915020     A.U. after   17 cycles
 SCF Done:  E(RHF) =  -546.901908689     A.U. after   17 cycles
 SCF Done:  E(RHF) =  -546.901916787     A.U. after   11 cycles
 Optimization completed.
    -- Stationary point found.
 Normal termination of Gaussian 09 at Tue Mar 10 22:58:30 2020.

 ------------------------------------------------------------
 #N Geom=AllCheck Guess=TCheck SCRF=Check Test HF/GTBas1 Freq
 ------------------------------------------------------------

 3NBALa_opt, G3MP2, qcisd test
 -----------------------------
 Redundant internal coordinates taken from checkpoint file:
 3NBALa_opt.chk
 Charge =  0 Multiplicity = 1

 SCF Done:  E(RHF) =  -546.901916787     A.U. after    1 cycles

  Exact polarizability: 106.289  -4.788  99.482   0.000   0.000  30.895
 Approx polarizability:  95.440  -6.683 102.372   0.000   0.000  36.291

                     1                      2                      3
                     A                      A                      A
 Frequencies --    47.6083               126.9156               164.8512
 Red. masses --    14.3949                 4.3661                11.1883
 Frc consts  --     0.0192                 0.0414                 0.1791
 IR Inten    --     0.9379                 7.9441                 3.6701
 Raman Activ --     0.5558                 2.0153                 0.2534

                     4                      5                      6
                     A                      A                      A
 Frequencies --   178.5006               264.8823               312.4533
 Red. masses --     4.7348                 2.7256                 7.5561
 Frc consts  --     0.0889                 0.1127                 0.4346
 IR Inten    --     0.3989                10.4511                 7.5505
 Raman Activ --     3.9932                 1.1160                 2.0520

                     7                      8                      9
                     A                      A                      A
 Frequencies --   430.3404               477.3304               479.2411
 Red. masses --     9.2661                 6.1870                 3.0989
 Frc consts  --     1.0110                 0.8306                 0.4193
 IR Inten    --     7.5697                 2.0675                 1.1691
 Raman Activ --     3.5339                 3.9462                 0.2316

                    10                     11                     12
                     A                      A                      A
 Frequencies --   538.0209               576.2890               702.9604
 Red. masses --     4.3930                 8.5947                 6.5423
 Frc consts  --     0.7492                 1.6817                 1.9048
 IR Inten    --     4.3949                10.0787                24.6396
 Raman Activ --     0.3949                 2.2586                 4.3534

                    13                     14                     15
                     A                      A                      A
 Frequencies --   736.4993               746.4662               846.1736
 Red. masses --     2.5262                 6.9020                 3.3126
 Frc consts  --     0.8073                 2.2659                 1.3975
 IR Inten    --    17.7143                50.6210                62.4619
 Raman Activ --     0.3367                 1.7490                 2.1267

                    16                     17                     18
                     A                      A                      A
 Frequencies --   916.8358               918.7374              1034.7564
 Red. masses --     8.5751                 1.7174                 4.2782
 Frc consts  --     4.2469                 0.8541                 2.6989
 IR Inten    --    19.1109                 9.6569                38.0152
 Raman Activ --     5.9435                 1.2667                 3.1994

                    19                     20                     21
                     A                      A                      A
 Frequencies --  1062.0516              1092.0431              1096.4176
 Red. masses --     1.3598                 6.2140                 1.4244
 Frc consts  --     0.9037                 4.3662                 1.0089
 IR Inten    --     4.0807                 0.1625                 4.8570
 Raman Activ --     0.7945                26.6426                 2.3016

                    22                     23                     24
                     A                      A                      A
 Frequencies --  1134.9735              1152.8950              1200.2227
 Red. masses --     1.3607                 1.7981                 1.6730
 Frc consts  --     1.0327                 1.4082                 1.4200
 IR Inten    --     0.0000                 0.0608                14.7936
 Raman Activ --     0.1693                 7.9593                 1.0192

                    25                     26                     27
                     A                      A                      A
 Frequencies --  1217.4345              1252.4843              1326.4431
 Red. masses --     2.0008                 1.9268                 3.4819
 Frc consts  --     1.7472                 1.7809                 3.6095
 IR Inten    --    36.5623                11.1084                49.1752
 Raman Activ --     7.4923                 4.8372                25.4531

                    28                     29                     30
                     A                      A                      A
 Frequencies --  1346.5242              1432.8676              1551.4232
 Red. masses --     2.0604                 1.3325                 1.3791
 Frc consts  --     2.2010                 1.6119                 1.9557
 IR Inten    --     2.1670                11.7772                44.6672
 Raman Activ --     0.5166                 0.7357                 5.0017

                    31                     32                     33
                     A                      A                      A
 Frequencies --  1605.5593              1643.6474              1654.7035
 Red. masses --     2.4884                 5.2163                 3.3256
 Frc consts  --     3.7794                 8.3028                 5.3650
 IR Inten    --    50.3997               194.0063                60.7971
 Raman Activ --     1.2986                52.3016                26.7201

                    34                     35                     36
                     A                      A                      A
 Frequencies --  1784.7774              1800.1384              1872.7259
 Red. masses --     5.6630                 6.1263                11.7156
 Frc consts  --    10.6284                11.6967                24.2082
 IR Inten    --    51.9638                32.0494               402.8678
 Raman Activ --    16.7433                60.9747                 3.3883

                    37                     38                     39
                     A                      A                      A
 Frequencies --  2012.7855              3175.4330              3367.5526
 Red. masses --    10.3496                 1.0876                 1.0909
 Frc consts  --    24.7041                 6.4615                 7.2891
 IR Inten    --   315.6305               101.4762                 7.0679
 Raman Activ --    63.9224               113.2178                66.6596

                    40                     41                     42
                     A                      A                      A
 Frequencies --  3397.1570              3440.7856              3446.1289
 Red. masses --     1.0946                 1.0947                 1.0934
 Frc consts  --     7.4431                 7.6362                 7.6503
 IR Inten    --    10.1799                 2.0130                10.7575
 Raman Activ --   122.2080                77.7364                29.7044

 - Thermochemistry -
 -------------------
 Temperature   298.150 Kelvin.  Pressure   1.00000 Atm.
 Atom     1 has atomic number  6 and mass  12.00000

 Molecular mass:   151.02694 amu.
 Principal axes and moments of inertia in atomic units:
                           1         2         3
     Eigenvalues --   899.454712202.274693101.72940
           X            0.99998   0.00567   0.00000
           Y           -0.00567   0.99998   0.00000
           Z            0.00000   0.00000   1.00000
 This molecule is an asymmetric top.
 Rotational symmetry number  1.
 Warning -- assumption of classical behavior for rotation
           may cause significant error
 Rotational temperatures (Kelvin)      0.09630     0.03933     0.02792
 Rotational constants (GHZ):           2.00648     0.81949     0.58185
 Zero-point vibrational energy     320396.1 (Joules/Mol)
                                   76.57649 (Kcal/Mol)
 Warning -- explicit consideration of  11 degrees of freedom as
           vibrations may cause significant error
 Vibrational temperatures:     68.50   182.60   237.18   256.82   381.11
          (Kelvin)            449.55   619.16   686.77   689.52   774.09
                              829.15  1011.40  1059.66  1074.00  1217.45
                             1319.12  1321.86  1488.78  1528.05  1571.20
                             1577.50  1632.97  1658.76  1726.85  1751.61
                             1802.04  1908.45  1937.35  2061.57  2232.15
                             2310.04  2364.84  2380.75  2567.89  2589.99
                             2694.43  2895.95  4568.73  4845.15  4887.75
                             4950.52  4958.20

 Zero-point correction=                           0.122032 (Hartree/Particle)
 Thermal correction to Energy=                    0.130322
 Thermal correction to Enthalpy=                  0.131266
 Thermal correction to Gibbs Free Energy=         0.087518
 Sum of electronic and zero-point Energies=           -546.779884
 Sum of electronic and thermal Energies=              -546.771595
 Sum of electronic and thermal Enthalpies=            -546.770651
 Sum of electronic and thermal Free Energies=         -546.814398

                     E (Thermal)             CV                S
                      KCal/Mol        Cal/Mol-Kelvin    Cal/Mol-Kelvin
 Total                   81.778             30.042             92.074
 Electronic               0.000              0.000              0.000
 Translational            0.889              2.981             40.947
 Rotational               0.889              2.981             30.197
 Vibrational             80.001             24.081             20.930
 Vibration     1          0.595              1.978              4.914
 Vibration     2          0.611              1.926              2.992
 Vibration     3          0.623              1.886              2.493
 Vibration     4          0.629              1.869              2.344
 Vibration     5          0.671              1.737              1.629
 Vibration     6          0.701              1.650              1.349
 Vibration     7          0.792              1.404              0.858
 Vibration     8          0.834              1.300              0.717
 Vibration     9          0.836              1.296              0.712
 Vibration    10          0.893              1.166              0.570
 Vibration    11          0.933              1.083              0.492

 Optimization completed.
    -- Stationary point found.
 Normal termination of Gaussian 09 at Tue Mar 10 22:58:52 2020.

 ----------------------------------------------------------------------
 #N Geom=AllCheck Guess=TCheck SCRF=Check Test MP2(Full)/GTBas1 Opt=RCF
 C
 ----------------------------------------------------------------------

 3NBALa_opt, G3MP2, qcisd test
 -----------------------------
 Redundant internal coordinates taken from checkpoint file:
 3NBALa_opt.chk
 Charge =  0 Multiplicity = 1

 SCF Done:  E(RHF) =  -546.901916787     A.U. after    1 cycles
 E2 =    -0.1627967010D+01 EUMP2 =    -0.54852988379671D+03
 SCF Done:  E(RHF) =  -546.893653194     A.U. after   13 cycles
 E2 =    -0.1646282046D+01 EUMP2 =    -0.54853993523988D+03
 SCF Done:  E(RHF) =  -546.890658880     A.U. after   17 cycles
 E2 =    -0.1649490614D+01 EUMP2 =    -0.54854014949470D+03
 SCF Done:  E(RHF) =  -546.890661441     A.U. after    9 cycles
 E2 =    -0.1649490389D+01 EUMP2 =    -0.54854015183030D+03
 Optimization completed.
    -- Stationary point found.
 Normal termination of Gaussian 09 at Tue Mar 10 23:00:41 2020.

 -------------------------------------------------------------------
 #N Geom=AllCheck Guess=TCheck SCRF=Check Test QCISD(T,FrzG3)/GTBas1
 -------------------------------------------------------------------

 3NBALa_opt, G3MP2, qcisd test
 -----------------------------
 Redundant internal coordinates taken from checkpoint file:
 3NBALa_opt.chk
 Charge =  0 Multiplicity = 1

 SCF Done:  E(RHF) =  -546.890661441     A.U. after    1 cycles
 E2 =    -0.1602813466D+01 EUMP2 =    -0.54849347490688D+03
 Normal termination of Gaussian 09 at Tue Mar 10 23:27:25 2020.

 ------------------------------------------------------------------
 #N Geom=AllCheck Guess=TCheck SCRF=Check Test MP2=FrzG3/GTMP2Large
 ------------------------------------------------------------------

 3NBALa_opt, G3MP2, qcisd test
 -----------------------------
 Redundant internal coordinates taken from checkpoint file:
 3NBALa_opt.chk
 Charge =  0 Multiplicity = 1

                         Standard orientation:
 ---------------------------------------------------------------------
 Center     Atomic      Atomic             Coordinates (Angstroms)
 Number     Number       Type             X           Y           Z
 ---------------------------------------------------------------------
      1          6           0        0.919726    1.524967    0.000000
      2          6           0       -0.274478    2.242344    0.000000
      3          6           0       -1.497666    1.572470    0.000000
      4          6           0       -1.527393    0.175476    0.000000
      5          6           0       -0.341924   -0.563795    0.000000
      6          6           0        0.855558    0.133070    0.000000
      7          1           0        1.884338    2.019847    0.000000
      8          1           0       -0.246335    3.328393    0.000000
      9          1           0       -2.430606    2.133568    0.000000
     10          6           0       -2.828622   -0.538356    0.000000
     11          1           0       -0.368862   -1.648452    0.000000
     12          7           0        2.116828   -0.627543    0.000000
     13          8           0        3.175670    0.019554    0.000000
     14          8           0        2.038543   -1.865219    0.000000
     15          8           0       -2.934307   -1.758025    0.000000
     16          1           0       -3.726788    0.111913    0.000000
 ---------------------------------------------------------------------

 SCF Done:  E(RHF) =  -547.069674289     A.U. after   17 cycles
 E2 =    -0.1992049190D+01 EUMP2 =    -0.54906172347886D+03

 The electronic state is 1-A.
 Alpha  occ. eigenvalues --  -20.61523 -20.61481 -20.57765 -15.86473 -11.35968
 Alpha  occ. eigenvalues --  -11.32783 -11.29867 -11.29801 -11.29563 -11.28470
 Alpha  occ. eigenvalues --  -11.28281  -1.60089  -1.40441  -1.39944  -1.22060
 Alpha  occ. eigenvalues --   -1.11731  -1.08022  -0.98160  -0.92943  -0.85612
 Alpha  occ. eigenvalues --   -0.82324  -0.78236  -0.73494  -0.72646  -0.72103
 Alpha  occ. eigenvalues --   -0.69731  -0.67020  -0.65032  -0.64236  -0.58112
 Alpha  occ. eigenvalues --   -0.57920  -0.55990  -0.53012  -0.50762  -0.50515
 Alpha  occ. eigenvalues --   -0.46262  -0.45366  -0.39760  -0.38473
 Alpha virt. eigenvalues --    0.01840   0.02372   0.03696   0.04020   0.05394
 Alpha virt. eigenvalues --    0.06646   0.07362   0.08476   0.10891   0.11095
 Alpha virt. eigenvalues --    0.11931   0.12397   0.12446   0.13802   0.14850

 Mulliken atomic charges:
              1
     1  C    0.628959
     2  C   -0.412921
     3  C   -1.485473
     4  C    0.838519
     5  C    0.333292
     6  C   -0.638044
     7  H    0.274228
     8  H    0.186341
     9  H    0.118401
    10  C    0.361862
    11  H    0.278530
    12  N   -0.000681
    13  O   -0.135434
    14  O   -0.108942
    15  O   -0.381551
    16  H    0.142914
 Sum of Mulliken atomic charges =   0.00000

 Dipole moment (field-independent basis, Debye):
    X=             -3.0142    Y=              5.8916    Z=              0.0000  Tot=              6.6179
 Quadrupole moment (field-independent basis, Debye-Ang):
   XX=            -73.7109   YY=            -64.2698   ZZ=            -63.6692
   XY=             -5.2369   XZ=              0.0000   YZ=              0.0000

 Normal termination of Gaussian 09 at Tue Mar 10 23:33:45 2020.
