 Gaussian 09, Revision B.01,
 Gaussian 09:  EM64L-G09RevB.01 12-Aug-2010

 ----------------------------------------------------------------------
 #G3MP2 QCISD=(Maxcyc=400) opt=(MaxCycles=400) scf=(MaxCycle=600) test
 GFInput IOP(6/7=3)
 ----------------------------------------------------------------------

 -----------------------------
 3NBALb_opt, G3MP2, qcisd test
 -----------------------------
 Symbolic Z-matrix:
 Charge =  0 Multiplicity = 1

 SCF Done:  E(RHF) =  -546.897741124     A.U. after   15 cycles
 SCF Done:  E(RHF) =  -546.902776793     A.U. after   16 cycles
 SCF Done:  E(RHF) =  -546.902275039     A.U. after   12 cycles
 SCF Done:  E(RHF) =  -546.902134001     A.U. after   14 cycles
 SCF Done:  E(RHF) =  -546.901585957     A.U. after   16 cycles
 SCF Done:  E(RHF) =  -546.902813195     A.U. after   14 cycles
 SCF Done:  E(RHF) =  -546.902881416     A.U. after   12 cycles
 SCF Done:  E(RHF) =  -546.902612366     A.U. after   16 cycles
 SCF Done:  E(RHF) =  -546.902894280     A.U. after   12 cycles
 SCF Done:  E(RHF) =  -546.902895642     A.U. after   10 cycles
 Optimization completed.
    -- Stationary point found.
 Normal termination of Gaussian 09 at Tue Mar 10 23:34:30 2020.

 ------------------------------------------------------------
 #N Geom=AllCheck Guess=TCheck SCRF=Check Test HF/GTBas1 Freq
 ------------------------------------------------------------

 3NBALb_opt, G3MP2, qcisd test
 -----------------------------
 Redundant internal coordinates taken from checkpoint file:
 3NBALb_opt.chk
 Charge =  0 Multiplicity = 1

 SCF Done:  E(RHF) =  -546.902895642     A.U. after    1 cycles

  Exact polarizability: 112.418   2.987  94.025  -0.002  -0.001  30.910
 Approx polarizability: 102.100   2.773  96.025  -0.003   0.000  36.298

                     1                      2                      3
                     A                      A                      A
 Frequencies --    52.7393               107.4449               179.1066
 Red. masses --    12.3860                 5.7642                 8.8647
 Frc consts  --     0.0203                 0.0392                 0.1675
 IR Inten    --     0.5563                15.1273                13.5739
 Raman Activ --     0.2988                 2.3429                 0.4837

                     4                      5                      6
                     A                      A                      A
 Frequencies --   206.3905               255.8193               309.1695
 Red. masses --     4.9392                 2.5072                 6.8319
 Frc consts  --     0.1240                 0.0967                 0.3848
 IR Inten    --     0.0198                 9.2596                 2.6170
 Raman Activ --     2.4058                 1.6174                 0.4549

                     7                      8                      9
                     A                      A                      A
 Frequencies --   400.2525               468.7928               473.9584
 Red. masses --    10.9960                 7.9999                 3.1044
 Frc consts  --     1.0379                 1.0359                 0.4109
 IR Inten    --     1.8582                 2.1027                 0.0845
 Raman Activ --     6.0912                 2.5515                 0.0595

                    10                     11                     12
                     A                      A                      A
 Frequencies --   537.9456               591.7600               706.8266
 Red. masses --     4.3263                 7.0519                 6.6341
 Frc consts  --     0.7376                 1.4549                 1.9528
 IR Inten    --     4.7168                 1.1874                15.6075
 Raman Activ --     0.1317                 0.9027                 2.2029

                    13                     14                     15
                     A                      A                      A
 Frequencies --   734.8003               779.7780               847.4875
 Red. masses --     2.5396                 7.2392                 3.6292
 Frc consts  --     0.8079                 2.5935                 1.5358
 IR Inten    --    17.9496                62.7465                60.9937
 Raman Activ --     0.0345                 2.8553                 3.0774

                    16                     17                     18
                     A                      A                      A
 Frequencies --   906.3009               924.6223              1012.1703
 Red. masses --     6.8645                 1.6307                 5.2422
 Frc consts  --     3.3220                 0.8214                 3.1643
 IR Inten    --    29.1212                11.2362                25.4886
 Raman Activ --     9.8326                 1.2421                 2.2331

                    19                     20                     21
                     A                      A                      A
 Frequencies --  1050.7568              1092.6030              1101.0306
 Red. masses --     1.3944                 6.2303                 1.3938
 Frc consts  --     0.9071                 4.3821                 0.9955
 IR Inten    --     8.2272                 0.9834                 1.1784
 Raman Activ --     0.4467                26.2149                 1.2861

                    22                     23                     24
                     A                      A                      A
 Frequencies --  1140.2876              1154.8341              1198.5169
 Red. masses --     1.4207                 1.7067                 1.6421
 Frc consts  --     1.0884                 1.3410                 1.3898
 IR Inten    --     0.0080                 0.0300                 6.3561
 Raman Activ --     1.2619                 6.9929                 1.7193

                    25                     26                     27
                     A                      A                      A
 Frequencies --  1220.6204              1255.1423              1327.4480
 Red. masses --     1.9831                 1.6472                 3.3971
 Frc consts  --     1.7408                 1.5289                 3.5269
 IR Inten    --    17.8396                45.6130                31.0658
 Raman Activ --     5.9313                 4.2055                30.7307

                    28                     29                     30
                     A                      A                      A
 Frequencies --  1357.1104              1441.9992              1543.5331
 Red. masses --     2.4744                 1.3604                 1.3840
 Frc consts  --     2.6850                 1.6667                 1.9428
 IR Inten    --    56.8217                 6.5481                15.5307
 Raman Activ --     5.7778                 0.9787                 3.2123

                    31                     32                     33
                     A                      A                      A
 Frequencies --  1602.9517              1641.8796              1657.4556
 Red. masses --     2.4398                 6.1892                 2.9926
 Frc consts  --     3.6935                 9.8304                 4.8438
 IR Inten    --    22.4452               255.9710                48.4503
 Raman Activ --     3.6856                74.8804                15.3537

                    34                     35                     36
                     A                      A                      A
 Frequencies --  1778.9247              1802.1454              1870.5682
 Red. masses --     5.9122                 5.8733                11.6683
 Frc consts  --    11.0234                11.2386                24.0549
 IR Inten    --    20.6808                36.5361               460.6091
 Raman Activ --    28.3531                47.5323                 4.2343

                    37                     38                     39
                     A                      A                      A
 Frequencies --  2010.5180              3181.1531              3390.8909
 Red. masses --    10.2537                 1.0881                 1.0909
 Frc consts  --    24.4201                 6.4877                 7.3903
 IR Inten    --   316.4889                89.0680                 5.4685
 Raman Activ --    69.6229                95.3333                70.2303

                    40                     41                     42
                     A                      A                      A
 Frequencies --  3411.9400              3421.6882              3438.9853
 Red. masses --     1.0953                 1.0930                 1.0947
 Frc consts  --     7.5124                 7.5399                 7.6280
 IR Inten    --     2.6893                 2.0004                 1.7575
 Raman Activ --    94.3401                42.3263                76.3437

 - Thermochemistry -
 -------------------
 Temperature   298.150 Kelvin.  Pressure   1.00000 Atm.
 Atom     1 has atomic number  6 and mass  12.00000

 Molecular mass:   151.02694 amu.
 Principal axes and moments of inertia in atomic units:
                           1         2         3
     Eigenvalues --   693.557892581.139343274.69721
           X            0.99999   0.00502   0.00000
           Y           -0.00502   0.99999   0.00000
           Z            0.00000   0.00000   1.00000
 This molecule is an asymmetric top.
 Rotational symmetry number  1.
 Warning -- assumption of classical behavior for rotation
           may cause significant error
 Rotational temperatures (Kelvin)      0.12488     0.03356     0.02645
 Rotational constants (GHZ):           2.60215     0.69920     0.55112
 Zero-point vibrational energy     320529.5 (Joules/Mol)
                                   76.60839 (Kcal/Mol)
 Warning -- explicit consideration of  11 degrees of freedom as
           vibrations may cause significant error
 Vibrational temperatures:     75.88   154.59   257.69   296.95   368.07
          (Kelvin)            444.83   575.87   674.49   681.92   773.98
                              851.41  1016.96  1057.21  1121.93  1219.34
                             1303.96  1330.32  1456.29  1511.80  1572.01
                             1584.14  1640.62  1661.55  1724.40  1756.20
                             1805.87  1909.90  1952.58  2074.71  2220.80
                             2306.29  2362.30  2384.71  2559.47  2592.88
                             2691.33  2892.68  4576.96  4878.73  4909.01
                             4923.04  4947.93

 Zero-point correction=                           0.122083 (Hartree/Particle)
 Thermal correction to Energy=                    0.130368
 Thermal correction to Enthalpy=                  0.131312
 Thermal correction to Gibbs Free Energy=         0.087652
 Sum of electronic and zero-point Energies=           -546.780812
 Sum of electronic and thermal Energies=              -546.772528
 Sum of electronic and thermal Enthalpies=            -546.771584
 Sum of electronic and thermal Free Energies=         -546.815244

                     E (Thermal)             CV                S
                      KCal/Mol        Cal/Mol-Kelvin    Cal/Mol-Kelvin
 Total                   81.807             30.045             91.890
 Electronic               0.000              0.000              0.000
 Translational            0.889              2.981             40.947
 Rotational               0.889              2.981             30.151
 Vibrational             80.029             24.083             20.792
 Vibration     1          0.596              1.977              4.712
 Vibration     2          0.606              1.943              3.315
 Vibration     3          0.629              1.868              2.338
 Vibration     4          0.641              1.831              2.075
 Vibration     5          0.666              1.753              1.690
 Vibration     6          0.699              1.656              1.367
 Vibration     7          0.766              1.470              0.962
 Vibration     8          0.826              1.319              0.741
 Vibration     9          0.831              1.308              0.727
 Vibration    10          0.893              1.166              0.570
 Vibration    11          0.949              1.049              0.464

 Optimization completed.
    -- Stationary point found.
 Normal termination of Gaussian 09 at Tue Mar 10 23:34:52 2020.

 ----------------------------------------------------------------------
 #N Geom=AllCheck Guess=TCheck SCRF=Check Test MP2(Full)/GTBas1 Opt=RCF
 C
 ----------------------------------------------------------------------

 3NBALb_opt, G3MP2, qcisd test
 -----------------------------
 Redundant internal coordinates taken from checkpoint file:
 3NBALb_opt.chk
 Charge =  0 Multiplicity = 1

 SCF Done:  E(RHF) =  -546.902895642     A.U. after    1 cycles
 E2 =    -0.1627619013D+01 EUMP2 =    -0.54853051465472D+03
 SCF Done:  E(RHF) =  -546.894687674     A.U. after   13 cycles
 E2 =    -0.1645803765D+01 EUMP2 =    -0.54854049143887D+03
 SCF Done:  E(RHF) =  -546.891746419     A.U. after   12 cycles
 E2 =    -0.1648953409D+01 EUMP2 =    -0.54854069982831D+03
 SCF Done:  E(RHF) =  -546.891751161     A.U. after    9 cycles
 E2 =    -0.1648950898D+01 EUMP2 =    -0.54854070205815D+03
 Optimization completed.
    -- Stationary point found.
 Normal termination of Gaussian 09 at Tue Mar 10 23:36:39 2020.

 -------------------------------------------------------------------
 #N Geom=AllCheck Guess=TCheck SCRF=Check Test QCISD(T,FrzG3)/GTBas1
 -------------------------------------------------------------------

 3NBALb_opt, G3MP2, qcisd test
 -----------------------------
 Redundant internal coordinates taken from checkpoint file:
 3NBALb_opt.chk
 Charge =  0 Multiplicity = 1

 SCF Done:  E(RHF) =  -546.891751161     A.U. after    1 cycles
 E2 =    -0.1602274642D+01 EUMP2 =    -0.54849402580294D+03
 Normal termination of Gaussian 09 at Wed Mar 11 00:03:44 2020.

 ------------------------------------------------------------------
 #N Geom=AllCheck Guess=TCheck SCRF=Check Test MP2=FrzG3/GTMP2Large
 ------------------------------------------------------------------

 3NBALb_opt, G3MP2, qcisd test
 -----------------------------
 Redundant internal coordinates taken from checkpoint file:
 3NBALb_opt.chk
 Charge =  0 Multiplicity = 1

                         Standard orientation:
 ---------------------------------------------------------------------
 Center     Atomic      Atomic             Coordinates (Angstroms)
 Number     Number       Type             X           Y           Z
 ---------------------------------------------------------------------
      1          6           0        0.809401    1.491118    0.000004
      2          6           0       -0.477064    2.033555    0.000007
      3          6           0       -1.594650    1.204419    0.000005
      4          6           0       -1.427529   -0.184531    0.000003
      5          6           0       -0.151578   -0.749191   -0.000001
      6          6           0        0.941974    0.107088    0.000002
      7          1           0        1.694672    2.117179    0.000005
      8          1           0       -0.599844    3.113095    0.000009
      9          1           0       -2.603282    1.608877    0.000007
     10          6           0       -2.616959   -1.072303   -0.000001
     11          1           0       -0.002326   -1.825142   -0.000002
     12          7           0        2.293583   -0.474691   -0.000001
     13          8           0        3.255720    0.308440   -0.000022
     14          8           0        2.383424   -1.712166    0.000017
     15          8           0       -3.770062   -0.660401   -0.000010
     16          1           0       -2.398527   -2.159087   -0.000012
 ---------------------------------------------------------------------

 SCF Done:  E(RHF) =  -547.070896672     A.U. after   15 cycles
 E2 =    -0.1991502486D+01 EUMP2 =    -0.54906239915815D+03

 The electronic state is 1-A.
 Alpha  occ. eigenvalues --  -20.61859 -20.61841 -20.57810 -15.86854 -11.35993
 Alpha  occ. eigenvalues --  -11.32938 -11.30196 -11.29965 -11.29220 -11.28477
 Alpha  occ. eigenvalues --  -11.28143  -1.60454  -1.40494  -1.40305  -1.22181
 Alpha  occ. eigenvalues --   -1.11589  -1.08411  -0.98060  -0.92746  -0.86899
 Alpha  occ. eigenvalues --   -0.82031  -0.77314  -0.74167  -0.72540  -0.72477
 Alpha  occ. eigenvalues --   -0.70358  -0.67418  -0.64873  -0.64256  -0.57967
 Alpha  occ. eigenvalues --   -0.57532  -0.56345  -0.53095  -0.51106  -0.50891
 Alpha  occ. eigenvalues --   -0.46680  -0.45389  -0.39454  -0.38827
 Alpha virt. eigenvalues --    0.01228   0.03051   0.04083   0.04488   0.05240
 Alpha virt. eigenvalues --    0.06754   0.07274   0.08505   0.10440   0.10502
 Alpha virt. eigenvalues --    0.12073   0.12173   0.12606   0.14112   0.15193

 Mulliken atomic charges:
              1
     1  C    0.582419
     2  C   -0.476616
     3  C   -0.318988
     4  C    0.792391
     5  C   -0.657127
     6  C   -0.676105
     7  H    0.273983
     8  H    0.183839
     9  H    0.195678
    10  C    0.336299
    11  H    0.235371
    12  N    0.016916
    13  O   -0.130665
    14  O   -0.122910
    15  O   -0.389363
    16  H    0.154877
 Sum of Mulliken atomic charges =   0.00000

 Dipole moment (field-independent basis, Debye):
    X=             -1.1952    Y=              2.0558    Z=              0.0000  Tot=              2.3780
 Quadrupole moment (field-independent basis, Debye-Ang):
   XX=            -91.3680   YY=            -55.2624   ZZ=            -63.6514
   XY=              2.8052   XZ=              0.0000   YZ=              0.0001

 Normal termination of Gaussian 09 at Wed Mar 11 00:09:47 2020.
