 Gaussian 09, Revision B.01,
 Gaussian 09:  EM64L-G09RevB.01 12-Aug-2010

 ----------------------------------------------------------------------
 #G3MP2 QCISD=(Maxcyc=400) opt=(MaxCycles=400) scf=(MaxCycle=600) test
 GFInput IOP(6/7=3)
 ----------------------------------------------------------------------

 -----------------------------
 4NBALa_opt, G3MP2, qcisd test
 -----------------------------
 Symbolic Z-matrix:
 Charge =  0 Multiplicity = 1

 SCF Done:  E(RHF) =  -546.895810725     A.U. after   16 cycles
 SCF Done:  E(RHF) =  -546.900974679     A.U. after   13 cycles
 SCF Done:  E(RHF) =  -546.901084818     A.U. after   11 cycles
 SCF Done:  E(RHF) =  -546.898538264     A.U. after   16 cycles
 SCF Done:  E(RHF) =  -546.901096493     A.U. after   16 cycles
 SCF Done:  E(RHF) =  -546.901096110     A.U. after   11 cycles
 SCF Done:  E(RHF) =  -546.901095134     A.U. after   17 cycles
 SCF Done:  E(RHF) =  -546.901098482     A.U. after   10 cycles
 Optimization completed.
    -- Stationary point found.
 Normal termination of Gaussian 09 at Wed Mar 11 00:10:23 2020.

 ------------------------------------------------------------
 #N Geom=AllCheck Guess=TCheck SCRF=Check Test HF/GTBas1 Freq
 ------------------------------------------------------------

 4NBALa_opt, G3MP2, qcisd test
 -----------------------------
 Redundant internal coordinates taken from checkpoint file:
 4NBALa_opt.chk
 Charge =  0 Multiplicity = 1

 SCF Done:  E(RHF) =  -546.901098482     A.U. after    1 cycles

  Exact polarizability: 115.827  -2.018  92.622   0.001   0.000  30.916
 Approx polarizability:  98.951  -4.212 100.094   0.001   0.000  36.305

                     1                      2                      3
                     A                      A                      A
 Frequencies --    49.2450                88.0199               163.8842
 Red. masses --     8.8061                 9.1950                 3.2278
 Frc consts  --     0.0126                 0.0420                 0.0511
 IR Inten    --     1.1061                10.4695                 4.4971
 Raman Activ --     0.1526                 0.0586                 1.2615

                     4                      5                      6
                     A                      A                      A
 Frequencies --   185.8967               303.6890               317.2138
 Red. masses --     9.5763                 7.7219                 3.8588
 Frc consts  --     0.1950                 0.4196                 0.2288
 IR Inten    --    10.4162                 2.2386                 9.9328
 Raman Activ --     0.5395                 2.9587                 1.9544

                     7                      8                      9
                     A                      A                      A
 Frequencies --   369.0626               462.6822               521.9388
 Red. masses --     8.1735                 2.9363                 3.2000
 Frc consts  --     0.6559                 0.3704                 0.5136
 IR Inten    --     6.9047                 0.3298                 5.4264
 Raman Activ --     2.9371                 0.0017                 0.1305

                    10                     11                     12
                     A                      A                      A
 Frequencies --   557.7977               593.0433               686.8926
 Red. masses --     9.5776                 6.6083                 7.0529
 Frc consts  --     1.7557                 1.3693                 1.9606
 IR Inten    --    12.0304                 6.5569                 0.2833
 Raman Activ --     0.5202                 0.7082                 7.1262

                    13                     14                     15
                     A                      A                      A
 Frequencies --   753.8855               760.2412               848.6307
 Red. masses --     6.4686                 3.7569                 3.6369
 Frc consts  --     2.1661                 1.2793                 1.5432
 IR Inten    --     8.7045                 5.4101                61.3900
 Raman Activ --     3.3690                 0.0645                 2.6571

                    16                     17                     18
                     A                      A                      A
 Frequencies --   895.0355               956.8587               968.8836
 Red. masses --     5.2278                 1.3072                 9.8011
 Frc consts  --     2.4675                 0.7052                 5.4209
 IR Inten    --   102.9090                 5.0706                26.1422
 Raman Activ --     6.1696                 1.9432                19.6936

                    19                     20                     21
                     A                      A                      A
 Frequencies --   973.0740              1109.5535              1112.9523
 Red. masses --     1.5859                 1.3878                 2.8418
 Frc consts  --     0.8847                 1.0066                 2.0739
 IR Inten    --    28.7408                 0.8257                 2.6592
 Raman Activ --     2.6339                 0.5700                 0.2783

                    22                     23                     24
                     A                      A                      A
 Frequencies --  1129.1064              1150.3624              1191.0735
 Red. masses --     1.3805                 1.7601                 1.7709
 Frc consts  --     1.0369                 1.3723                 1.4802
 IR Inten    --     0.0215                 0.0556                 3.2101
 Raman Activ --     0.3248                11.7875                 0.3954

                    25                     26                     27
                     A                      A                      A
 Frequencies --  1241.0930              1294.0689              1311.1491
 Red. masses --     3.2469                 1.3396                 3.0854
 Frc consts  --     2.9466                 1.3217                 3.1251
 IR Inten    --    11.1462                 9.3221                53.1848
 Raman Activ --    32.6414                11.8556                11.6858

                    28                     29                     30
                     A                      A                      A
 Frequencies --  1339.4134              1446.6784              1539.2625
 Red. masses --     3.2026                 1.3075                 1.6491
 Frc consts  --     3.3852                 1.6123                 2.3020
 IR Inten    --    75.7931                11.2559                37.3496
 Raman Activ --     4.8895                 0.9114                 2.1409

                    31                     32                     33
                     A                      A                      A
 Frequencies --  1583.2510              1645.1234              1674.9126
 Red. masses --     1.8544                11.4674                 2.4406
 Frc consts  --     2.7387                18.2858                 4.0339
 IR Inten    --     0.5134               307.7448                 9.6240
 Raman Activ --     0.7202                96.8972                 7.1124

                    34                     35                     36
                     A                      A                      A
 Frequencies --  1777.3550              1812.5428              1872.5588
 Red. masses --     7.4887                 5.4556                12.3219
 Frc consts  --    13.9381                10.5602                25.4565
 IR Inten    --    82.4006                 0.6071               418.2694
 Raman Activ --     0.8424               179.4415                 1.0536

                    37                     38                     39
                     A                      A                      A
 Frequencies --  2015.0005              3182.1901              3375.0123
 Red. masses --    10.3589                 1.0880                 1.0922
 Frc consts  --    24.7807                 6.4914                 7.3297
 IR Inten    --   291.2814                99.9068                 7.9178
 Raman Activ --    88.8306               109.6921                75.3676

                    40                     41                     42
                     A                      A                      A
 Frequencies --  3412.4216              3442.7527              3442.9818
 Red. masses --     1.0922                 1.0951                 1.0945
 Frc consts  --     7.4933                 7.6477                 7.6445
 IR Inten    --     0.5640                 1.3678                 1.5596
 Raman Activ --    48.9344                89.7432                49.8810

 - Thermochemistry -
 -------------------
 Temperature   298.150 Kelvin.  Pressure   1.00000 Atm.
 Atom     1 has atomic number  6 and mass  12.00000

 Molecular mass:   151.02694 amu.
 Principal axes and moments of inertia in atomic units:
                           1         2         3
     Eigenvalues --   480.509543016.461733496.97126
           X            0.99998   0.00569   0.00000
           Y           -0.00569   0.99998   0.00000
           Z            0.00000   0.00000   1.00000
 This molecule is an asymmetric top.
 Rotational symmetry number  1.
 Warning -- assumption of classical behavior for rotation
           may cause significant error
 Rotational temperatures (Kelvin)      0.18025     0.02871     0.02477
 Rotational constants (GHZ):           3.75589     0.59830     0.51609
 Zero-point vibrational energy     320340.7 (Joules/Mol)
                                   76.56328 (Kcal/Mol)
 Warning -- explicit consideration of  11 degrees of freedom as
           vibrations may cause significant error
 Vibrational temperatures:     70.85   126.64   235.79   267.46   436.94
          (Kelvin)            456.40   531.00   665.70   750.95   802.55
                              853.26   988.28  1084.67  1093.82  1220.99
                             1287.75  1376.70  1394.01  1400.03  1596.40
                             1601.29  1624.53  1655.11  1713.69  1785.65
                             1861.87  1886.45  1927.11  2081.44  2214.65
                             2277.94  2366.96  2409.82  2557.21  2607.84
                             2694.19  2899.13  4578.46  4855.88  4909.71
                             4953.35  4953.68

 Zero-point correction=                           0.122011 (Hartree/Particle)
 Thermal correction to Energy=                    0.130331
 Thermal correction to Enthalpy=                  0.131275
 Thermal correction to Gibbs Free Energy=         0.087412
 Sum of electronic and zero-point Energies=           -546.779087
 Sum of electronic and thermal Energies=              -546.770767
 Sum of electronic and thermal Enthalpies=            -546.769823
 Sum of electronic and thermal Free Energies=         -546.813687

                     E (Thermal)             CV                S
                      KCal/Mol        Cal/Mol-Kelvin    Cal/Mol-Kelvin
 Total                   81.784             30.049             92.319
 Electronic               0.000              0.000              0.000
 Translational            0.889              2.981             40.947
 Rotational               0.889              2.981             30.006
 Vibrational             80.007             24.088             21.365
 Vibration     1          0.595              1.978              4.847
 Vibration     2          0.601              1.958              3.704
 Vibration     3          0.623              1.887              2.504
 Vibration     4          0.632              1.859              2.268
 Vibration     5          0.695              1.667              1.396
 Vibration     6          0.704              1.641              1.324
 Vibration     7          0.741              1.536              1.084
 Vibration     8          0.820              1.333              0.758
 Vibration     9          0.877              1.201              0.605
 Vibration    10          0.913              1.123              0.528
 Vibration    11          0.951              1.047              0.462

 Optimization completed.
    -- Stationary point found.
 Normal termination of Gaussian 09 at Wed Mar 11 00:10:46 2020.

 ----------------------------------------------------------------------
 #N Geom=AllCheck Guess=TCheck SCRF=Check Test MP2(Full)/GTBas1 Opt=RCF
 C
 ----------------------------------------------------------------------

 4NBALa_opt, G3MP2, qcisd test
 -----------------------------
 Redundant internal coordinates taken from checkpoint file:
 4NBALa_opt.chk
 Charge =  0 Multiplicity = 1

 SCF Done:  E(RHF) =  -546.901098482     A.U. after    1 cycles
 E2 =    -0.1629422472D+01 EUMP2 =    -0.54853052095452D+03
 SCF Done:  E(RHF) =  -546.892602683     A.U. after   14 cycles
 E2 =    -0.1648314085D+01 EUMP2 =    -0.54854091676752D+03
 SCF Done:  E(RHF) =  -546.889348977     A.U. after   12 cycles
 E2 =    -0.1651810532D+01 EUMP2 =    -0.54854115950912D+03
 SCF Done:  E(RHF) =  -546.889347000     A.U. after   17 cycles
 E2 =    -0.1651815332D+01 EUMP2 =    -0.54854116233184D+03
 Optimization completed.
    -- Stationary point found.
 Normal termination of Gaussian 09 at Wed Mar 11 00:12:33 2020.

 -------------------------------------------------------------------
 #N Geom=AllCheck Guess=TCheck SCRF=Check Test QCISD(T,FrzG3)/GTBas1
 -------------------------------------------------------------------

 4NBALa_opt, G3MP2, qcisd test
 -----------------------------
 Redundant internal coordinates taken from checkpoint file:
 4NBALa_opt.chk
 Charge =  0 Multiplicity = 1

 SCF Done:  E(RHF) =  -546.889347000     A.U. after    1 cycles
 E2 =    -0.1605151832D+01 EUMP2 =    -0.54849449883141D+03
 Normal termination of Gaussian 09 at Wed Mar 11 00:42:34 2020.

 ------------------------------------------------------------------
 #N Geom=AllCheck Guess=TCheck SCRF=Check Test MP2=FrzG3/GTMP2Large
 ------------------------------------------------------------------

 4NBALa_opt, G3MP2, qcisd test
 -----------------------------
 Redundant internal coordinates taken from checkpoint file:
 4NBALa_opt.chk
 Charge =  0 Multiplicity = 1

                         Standard orientation:
 ---------------------------------------------------------------------
 Center     Atomic      Atomic             Coordinates (Angstroms)
 Number     Number       Type             X           Y           Z
 ---------------------------------------------------------------------
      1          6           0        0.477535    1.282518   -0.000001
      2          6           0       -0.910377    1.380718   -0.000002
      3          6           0       -1.701552    0.227266   -0.000002
      4          6           0       -1.102831   -1.039115    0.000001
      5          6           0        0.280770   -1.157346    0.000002
      6          6           0        1.042666    0.010460    0.000004
      7          1           0        1.116860    2.157929   -0.000001
      8          1           0       -1.382015    2.361801   -0.000004
      9          6           0       -3.177863    0.341820   -0.000001
     10          1           0       -1.740955   -1.918633    0.000002
     11          1           0        0.774275   -2.122625    0.000003
     12          7           0        2.508198   -0.105749    0.000002
     13          8           0        3.167703    0.946059    0.000003
     14          8           0        2.993100   -1.248581   -0.000006
     15          8           0       -3.935835   -0.621638    0.000001
     16          1           0       -3.575390    1.377122    0.000003
 ---------------------------------------------------------------------

 SCF Done:  E(RHF) =  -547.068386964     A.U. after   14 cycles
 E2 =    -0.1994447104D+01 EUMP2 =    -0.54906283406839D+03

 The electronic state is 1-A.
 Alpha  occ. eigenvalues --  -20.61940 -20.61905 -20.58339 -15.86840 -11.36301
 Alpha  occ. eigenvalues --  -11.33452 -11.29310 -11.29180 -11.29068 -11.29014
 Alpha  occ. eigenvalues --  -11.28379  -1.60424  -1.40810  -1.40265  -1.22002
 Alpha  occ. eigenvalues --   -1.12157  -1.07220  -1.00158  -0.89476  -0.88125
 Alpha  occ. eigenvalues --   -0.81914  -0.79324  -0.74231  -0.72424  -0.72319
 Alpha  occ. eigenvalues --   -0.68770  -0.66896  -0.64779  -0.64054  -0.60077
 Alpha  occ. eigenvalues --   -0.57997  -0.54773  -0.53158  -0.51124  -0.50860
 Alpha  occ. eigenvalues --   -0.46600  -0.45853  -0.39433  -0.38592
 Alpha virt. eigenvalues --   -0.00097   0.02786   0.04337   0.05130   0.06745
 Alpha virt. eigenvalues --    0.07195   0.07816   0.08524   0.09168   0.09723
 Alpha virt. eigenvalues --    0.12184   0.12831   0.13353   0.13517   0.14787

 Mulliken atomic charges:
              1
     1  C   -0.177130
     2  C   -0.937574
     3  C    0.502913
     4  C    0.242501
     5  C   -0.353180
     6  C    0.070046
     7  H    0.243851
     8  H    0.149103
     9  C    0.300117
    10  H    0.209640
    11  H    0.241044
    12  N   -0.014842
    13  O   -0.127183
    14  O   -0.120737
    15  O   -0.376530
    16  H    0.147960
 Sum of Mulliken atomic charges =   0.00000

 Dipole moment (field-independent basis, Debye):
    X=             -2.2212    Y=              2.3387    Z=              0.0000  Tot=              3.2254
 Quadrupole moment (field-independent basis, Debye-Ang):
   XX=            -90.2303   YY=            -57.1394   ZZ=            -63.7134
   XY=             -7.1237   XZ=              0.0000   YZ=              0.0000

 Normal termination of Gaussian 09 at Wed Mar 11 00:48:27 2020.
